40
Comment: ;;;Step 123;;;Energy -7.01911003671
C   -0.26128864264  -2.75777726029  0.853585170695
C   -1.5731577245  -2.9331214008  0.438597292241
C   -2.28783536382  -1.90359422499  -0.174056162063
C   -1.60675107221  -0.720684675887  -0.397707544461
C   -1.05885310175  1.45422839253  -0.87996473547
C   -1.37934163468  2.51495028937  0.18555012868
C   -0.994593859686  2.0096024107  1.56217625666
C   0.207845084401  1.4778667849  1.75826057187
C   2.23312771495  0.21623088604  0.843421285889
C   1.75697954809  -1.2106173412  1.19755022153
C   0.405861195872  -1.55167473654  0.628798710766
C   -0.264287220653  -0.639282633463  -0.153523501842
C   0.260061289681  0.681799321679  -0.587581030167
C   1.09631637014  1.22119060851  0.574973727893
C   1.14465054951  0.602799716836  -1.82847073625
C   2.42196487767  -0.1950960018  -1.55504427211
C   4.41665573803  -0.301410817383  -0.163494885385
O   -3.57784584995  -2.08142645743  -0.509105514634
O   -2.7261830319  2.88856809595  0.1105939134
O   -2.13654226164  0.458725543352  -0.8204936497
N   3.08636691844  0.250896158649  -0.337245552508
H   0.230321332519  -3.57422440962  1.36953282915
H   -2.07863974118  -3.87663230172  0.610582560046
H   -1.0856978507  1.91077278592  -1.86398278382
H   -0.779006714497  3.40909210108  -0.0304774509977
H   -1.69917069508  2.17224020205  2.36455233088
H   0.552920535637  1.23754632997  2.75341805043
H   2.82189961453  0.598923188177  1.67726907999
H   2.48045519306  -1.93243664483  0.813520005582
H   1.74042618376  -1.35446085791  2.28267687069
H   1.57670373336  2.15015129495  0.247450380732
H   0.591190495438  0.157195222901  -2.65425989337
H   1.4109229804  1.62795751438  -2.10674556104
H   2.18868725402  -1.27195036279  -1.50715561626
H   3.1147653044  -0.0621217571847  -2.38767702983
H   5.04635367629  0.012651048409  -1.00011486156
H   4.43727603061  -1.40116877603  -0.128010221059
H   4.86256552386  0.0833435016803  0.75675528593
H   -3.9029405557  -1.26425773557  -0.895167792724
H   -3.22326677646  2.07816903532  -0.0396507665797


40
Comment: qchem_opt
C      -0.3020862829    -2.7072768686     0.9163470606
C      -1.6167801758    -2.8667745147     0.4873984196
C      -2.2827230860    -1.8590236469    -0.2135802905
C      -1.5497660379    -0.7227896079    -0.5080567281
C      -1.0339122770     1.4619184170    -0.8872407241
C      -1.4704895443     2.4172882992     0.2458133669
C      -0.9843803528     1.9805562413     1.6081379745
C       0.2323004905     1.4753952142     1.7778307415
C       2.2685335900     0.2367192165     0.8085617179
C       1.7601081186    -1.1825336893     1.2030982865
C       0.4229081172    -1.5530661915     0.6048943753
C      -0.2226118228    -0.6202013551    -0.1765466153
C       0.2949183201     0.7247945852    -0.5987701214
C       1.1255237802     1.2519713982     0.5878984471
C       1.1864828032     0.6435321982    -1.8467115765
C       2.4441901305    -0.1764183164    -1.5877811379
C       4.4063111082    -0.3647966562    -0.2052627696
O      -3.5965648684    -1.9995396793    -0.5327905212
O      -2.8586381409     2.6396790432     0.1991733512
O      -2.0512969957     0.4273522326    -1.0592253600
N       3.1215060589     0.2768832542    -0.3821068129
H       0.1501088480    -3.4838393264     1.5244777560
H      -2.1746004222    -3.7615377230     0.7377891968
H      -1.0174195223     2.0055858988    -1.8320401847
H      -1.0042762039     3.3863955537     0.0264807546
H      -1.6570829312     2.1675412123     2.4381835421
H       0.5936087557     1.2106191633     2.7675894508
H       2.8854554169     0.6045162348     1.6348652613
H       2.5262682094    -1.9204852863     0.9444958048
H       1.6619777343    -1.2281298441     2.2932176814
H       1.6084881111     2.1959225764     0.3050488367
H       0.6250860356     0.2041399521    -2.6769418272
H       1.4712367873     1.6620907849    -2.1337572429
H       2.1858364126    -1.2501005714    -1.5368050445
H       3.1338864088    -0.0592186135    -2.4284361649
H       5.0524815420    -0.1250114858    -1.0538533732
H       4.3526019634    -1.4657806354    -0.1294692408
H       4.8861801265     0.0156966238     0.7000298837
H      -3.8654176223    -1.2394380031    -1.0528747406
H      -3.2590375348     1.7803259531     0.0402536780
